ITEM: TIMESTEP
20000
ITEM: NUMBER OF ATOMS
1024
ITEM: BOX BOUNDS ss ss ss
6.8929890944399930e-01 2.4640074030556001e+01
6.9209890944399988e-01 2.4657374030555999e+01
6.6719890944399751e-01 2.4690374030556001e+01
ITEM: ATOMS id type x y z vx vy vz fx fy fz
1 1 2.33763 2.38103 2.3638 1.22835 2.14361 0.620867 -0.2818 -0.466232 -0.65653
2 1 3.90855 3.92671 3.88744 -1.1956 -1.47815 0.870331 0.26123 0.13402 1.34004
3 1 0.820471 3.92854 4.00462 -0.656521 0.584162 1.59898 -0.000569302 -0.0234653 -0.825694
4 1 3.9222 0.800324 3.91519 1.45304 -1.41114 -2.23414 -0.245553 -0.310018 -0.573386
5 1 0.819044 4.00873 0.80365 1.81205 -1.1459 -1.44322 1.55229 -0.435392 1.87762
6 1 0.833187 0.844048 0.837456 -0.712553 0.457244 -0.278267 2.40221 2.33845 2.15261
26 1 0.765234 0.814227 3.93066 1.17487 -0.285379 0.590755 1.71843 1.55642 0.129239
309 1 3.92569 3.99815 0.766234 0.00258228 0.0688456 1.09264 0.0743717 -1.03737 -0.220546
1007 1 4.00979 0.781234 0.783934 -1.21124 1.51829 -0.971784 -0.787797 2.09269 1.83613
7 1 5.46435 2.41198 2.35573 -0.475787 -0.249263 -2.03238 0.870816 -0.661432 -0.184474
8 1 7.10354 3.94629 3.99081 1.42863 0.764269 2.03633 0.188272 -0.177257 -0.657252
9 1 7.12672 0.803247 0.874073 0.0635163 -2.6942 -1.2378 -0.229141 1.25758 0.953766
10 1 7.10888 3.93359 0.83947 -0.363774 -0.220717 -1.37696 0.0814713 0.18653 0.375993
11 1 7.08418 0.799377 3.95699 1.78139 -0.209683 0.506251 -0.32971 -0.0920353 0.0341718
12 1 8.68612 2.26777 2.37864 0.173788 -1.97052 0.546261 0.502721 0.947552 -0.25798
13 1 10.2267 3.91709 0.822431 2.00951 0.000961574 -2.50172 1.04783 -0.515169 0.198713
14 1 10.3035 3.90224 3.96388 2.82304 0.540199 -2.12433 -0.323214 0.236167 -0.55491
318 1 10.2999 0.797142 0.750734 -0.963 -0.711868 -0.645094 -0.101213 1.68208 2.13681
711 1 10.2575 0.751434 3.94628 -0.611495 0.241173 0.574854 0.662929 -0.0556849 -0.693218
15 1 11.9732 2.30841 2.36626 0.518359 1.77162 -2.42216 -1.52641 -0.0707407 -0.102494
16 1 13.4187 3.93371 3.97631 -0.517257 0.689983 1.25799 1.05064 -0.172192 0.0193142
18 1 13.5001 3.90876 0.825268 -0.524432 -1.74353 -0.267071 -0.208444 0.0434556 0.402933
718 1 13.3861 0.701534 0.836205 0.643045 1.20749 -0.845518 1.05301 2.11966 1.9906
721 1 13.4801 0.712534 4.0866 0.147495 0.883258 0.854475 -0.42707 0.616161 -1.30254
17 1 15.0226 2.33523 2.46634 -1.61625 -1.33805 0.879723 0.714207 -0.254994 -1.02143
19 1 16.6658 0.81283 0.791058 1.04108 -0.368542 -0.250536 -0.26877 2.16976 2.54748
20 1 16.6406 3.91509 4.02255 1.5655 -1.18139 -1.53242 -0.680277 0.0953566 0.017743
21 1 16.6763 3.9447 0.821831 0.0558473 1.12007 -0.883133 -0.399945 -0.53223 0.643881
719 1 16.594 0.773934 3.99503 -1.26832 -1.09828 0.544829 0.738092 0.188114 -0.443807
22 1 18.2633 2.40407 2.52116 -1.15781 -2.34409 -0.686921 -0.702776 -0.799034 -1.83572
23 1 19.8832 3.91888 4.04537 0.928199 0.499191 -1.56624 -0.936092 0.408025 -0.960947
25 1 19.8635 0.817496 3.94119 -1.5485 1.30467 -1.98851 -0.317092 -0.312791 0.259776
325 1 19.809 4.00206 0.766234 -0.0955372 -0.947481 0.0409953 -0.323146 -0.942843 0.729843
328 1 19.8446 0.849325 0.789334 0.25283 -0.123147 0.633775 -0.2391 1.73437 1.74272
24 1 21.3758 2.36866 2.33739 0.257633 -0.288256 -0.521565 1.25353 0.104142 -0.203177
27 1 23.0005 4.01441 3.99529 2.1929 4.14613 1.16513 0.0572516 -0.992648 -1.37152
28 1 24.5401 2.42993 2.3158 0.281594 -0.118007 1.38626 -1.72043 0.397779 1.2774
29 1 23.0057 0.826731 3.9619 -0.480973 -0.595718 -0.536726 -0.422837 1.10487 -0.925996
30 1 23.0062 4.01995 0.809743 0.18063 2.6706 1.65533 -1.25349 -1.04715 0.706079
330 1 23.037 0.8433 0.754534 0.714961 1.14295 -0.315953 -1.92186 2.48288 2.65814
31 1 2.45817 5.5458 2.35072 -0.0182733 -0.622985 -0.00395072 -1.90809 -0.224606 -0.436376
33 1 3.91111 7.07351 3.91224 -1.60177 -1.00306 -1.78326 -0.0630054 0.573514 0.506069
34 1 0.839231 7.08081 3.87504 2.43923 1.26855 -1.98565 -0.21732 0.104261 0.601504
59 1 0.767234 7.1309 0.807932 0.556947 -0.432679 1.15751 2.14648 -0.09859 1.55816
336 1 4.02187 7.11304 0.766334 -0.812422 -0.213877 0.498817 -1.32012 0.116627 -0.676019
35 1 5.49368 5.55669 2.39111 0.120261 0.816804 -0.396227 1.56323 -0.493339 -0.285603
37 1 7.07995 7.08634 3.99942 0.140459 1.65575 1.1722 1.00281 0.6769 -1.53516
40 1 7.16543 7.14087 0.813329 -0.139054 -0.39823 0.797919 0.0567662 -0.686708 0.598596
38 1 8.82118 5.48785 2.43409 -1.13584 -0.118277 -0.266006 -1.92192 0.798485 -0.164011
41 1 10.3849 7.12379 3.95511 -2.58459 -0.829184 0.277298 -1.43774 -0.121961 -0.259206
340 1 10.2665 7.07995 0.764534 -1.12911 0.191662 1.564 0.473865 0.357887 0.828831
42 1 11.8957 5.53381 2.40204 0.677432 -0.628811 -0.306965 0.385879 -0.24984 -0.58537
44 1 13.4766 7.16671 0.83006 1.15529 0.509431 0.343556 -0.569214 -0.538976 0.115423
45 1 13.5068 7.10343 3.99094 -1.78382 0.452491 -1.18537 -1.124 -0.114366 -0.315717
46 1 15.0917 5.54015 2.42524 -0.365937 0.351037 -1.31875 -0.901218 -0.751922 -0.318307
48 1 16.5675 7.2001 3.94443 0.902893 1.53908 -1.03621 1.17346 -1.23225 0.704013
49 1 16.5907 7.16229 0.825456 0.212323 0.34215 0.285562 0.667887 -0.555611 0.0622119
50 1 18.1297 5.47546 2.50962 0.110286 -0.942866 2.15013 1.24165 1.03777 -1.30504
52 1 19.7792 7.11224 3.96924 2.59127 -0.957198 -0.32418 -0.0564516 0.0138993 -0.279514
354 1 19.8342 7.08538 0.759434 0.698634 -1.59209 -1.41128 -1.09276 0.573922 0.78319
53 1 22.9235 7.04677 0.813744 0.413176 0.0662979 -0.252303 -0.529909 0.777724 0.406319
54 1 21.2621 5.51859 2.36945 -1.73657 0.347686 1.30412 1.71445 0.0456134 0.361288
56 1 23.0196 7.16319 3.91565 0.0116396 0.305305 -2.03801 -0.924048 -0.83716 0.719272
57 1 24.5116 5.56997 2.37695 -2.02285 0.639972 0.719638 -0.315814 -0.181476 0.83396
32 1 2.38613 8.68234 2.3264 0.583888 1.98672 0.0318575 -0.608153 0.437504 -0.534705
359 1 3.93342 10.2471 3.86818 -2.08491 2.28312 -0.263172 0.068929 0.592372 0.395211
360 1 0.795225 10.2712 3.92187 0.432431 0.146691 0.446704 0.287222 0.253007 -0.18258
386 1 0.753334 10.2755 0.834265 1.17542 1.44896 -1.35821 1.85407 -0.0815398 1.3951
627 1 3.9416 10.3454 0.682634 -2.00339 -0.622846 -0.586917 -0.322782 -0.699789 0.691519
36 1 5.45601 8.67478 2.26819 0.22379 1.09675 -0.948349 1.53109 0.638653 0.961882
362 1 7.10517 10.2944 3.90688 1.61957 2.29406 1.15656 -0.308776 -0.775038 0.147075
634 1 7.16767 10.2542 0.750134 -0.590577 -0.535826 0.494661 -0.511819 0.36714 0.230074
39 1 8.715 8.75114 2.4014 0.611331 1.94136 0.304921 -0.311233 -1.22507 -0.155662
366 1 10.2518 10.2607 3.99516 0.0986861 1.77517 0.0189387 0.731486 0.642015 -0.596185
635 1 10.2779 10.266 0.781434 0.221134 -1.64047 -1.40213 0.403736 0.405104 0.416347
43 1 11.8472 8.73598 2.38795 2.23198 -0.16634 -2.13547 0.431608 -0.249948 -0.176755
370 1 13.4983 10.2581 4.00062 2.55879 0.0964173 -0.158025 -0.770092 0.789231 -0.238379
372 1 13.4877 10.429 0.850738 0.410826 -1.02616 -0.74944 -0.85121 -1.54308 -0.464847
47 1 14.9749 8.67206 2.39771 0.911426 0.1015 4.00638 0.906369 1.27799 -0.436603
373 1 16.6345 10.3031 3.99917 -0.0802848 0.542718 -0.49068 0.284622 -0.0740718 -0.598573
641 1 16.5768 10.282 0.740234 1.58975 0.75796 -0.580328 0.510879 -0.158764 1.0771
51 1 18.2082 8.68519 2.39857 1.62401 -0.166687 0.151639 0.101765 0.0616228 -0.210022
379 1 19.8612 10.2479 4.02323 0.176332 0.308694 1.4068 -0.850033 0.605165 -0.564072
647 1 19.805 10.3131 0.776734 0.697394 -2.16676 -2.2014 -0.00873214 -0.949338 0.39534
55 1 21.3808 8.65359 2.40457 -2.18295 -1.85059 -0.601042 -0.192264 0.449262 -0.454701
58 1 24.5025 8.73442 2.40619 -1.23944 -0.770649 1.48367 0.118297 -0.326479 0.301875
382 1 22.9958 10.2639 3.96568 0.325857 2.22428 0.945842 -0.399807 0.157631 -0.0369526
384 1 22.9837 10.2307 0.797316 1.09683 -0.0496211 -2.11798 -0.878045 0.0117368 0.662105
358 1 2.36072 11.8902 2.29364 -0.601836 -0.768795 1.25116 0.0988717 -0.557835 0.780417
363 1 3.97398 13.4009 3.96166 -1.06665 -1.31226 0.76088 -0.325285 0.177234 -0.785196
381 1 0.763534 13.4557 3.96566 0.747828 0.0849712 0.973748 0.817693 -0.0214966 -0.231906
387 1 0.780134 13.4132 0.866693 -1.4424 1.0152 0.453391 1.40223 0.384226 1.11822
626 1 3.9445 13.4288 0.745334 -1.23776 0.605095 -0.812378 -0.0477976 0.637091 0.502244
361 1 5.56183 11.8185 2.31095 0.517728 -2.28792 1.14798 -0.438773 0.529312 0.0834062
365 1 7.16595 13.3691 3.95214 -0.366483 -0.410914 -0.0245152 -0.104269 1.31169 -0.0497809
396 1 7.15077 13.5118 0.791211 0.0857354 0.197742 -1.19453 -0.277386 -0.726957 -0.106569
364 1 8.69731 11.9147 2.293 -1.4815 -0.425009 1.37164 0.646576 -0.731047 0.756907
368 1 10.3414 13.4245 3.96684 -0.389963 0.699928 0.732182 -0.881478 0.0490838 0.182786
664 1 10.306 13.5134 0.761734 -0.585629 0.29617 -1.10804 -0.0381219 -0.308364 0.611073
367 1 11.85 11.8776 2.42403 0.770245 0.962392 0.811718 0.081502 -0.0674367 -0.350937
369 1 13.4618 13.4447 3.98666 -0.827261 0.784632 0.689633 0.513987 -0.481444 -1.0372
665 1 13.4108 13.4972 0.768334 -1.40035 -0.06316 -0.663947 0.313845 -0.189862 0.471792
371 1 15.0199 11.877 2.35751 -0.427921 1.51863 0.390303 0.704256 0.113481 0.93119
375 1 16.6399 13.4623 3.91282 -0.995733 1.99284 -0.76378 0.452903 -0.180068 -0.0513535
377 1 16.6801 13.4102 0.820012 -1.10987 -0.0632887 0.733302 -0.480872 0.313028 -0.193105
374 1 18.2302 11.763 2.35188 0.276378 2.56347 1.58454 0.00823849 1.10866 0.659245
376 1 19.795 13.4536 0.791476 -0.235698 -0.681017 -0.241034 0.580442 -0.0517964 0.236663
378 1 19.8796 13.45 3.92383 -0.824636 -1.10624 0.644346 -0.765001 -0.0423097 -0.618968
380 1 21.4126 11.7898 2.3385 -0.417768 -0.732074 -2.04932 0.20913 0.910736 0.46839
383 1 24.5623 11.8614 2.38613 0.577934 0.266308 1.28888 -0.860715 0.164907 0.603973
385 1 22.9759 13.3589 0.794639 1.62052 0.33808 -2.25271 -0.683913 0.83309 1.04332
405 1 23.043 13.4764 3.99457 -0.944654 1.20704 0.296025 0.126248 -0.241828 -1.79214
388 1 2.41785 15.0324 2.37784 3.39707 -1.33412 -0.290699 -0.63372 -0.274318 -0.331145
389 1 0.795032 16.6537 3.94282 0.55111 -2.12014 1.01237 -0.022875 -0.918144 -0.359904
390 1 4.03921 16.5282 3.98146 -0.404039 -0.363506 -0.351996 -1.40706 1.24562 -0.521
654 1 3.88752 16.6746 0.733234 0.355124 -0.197679 0.240693 0.695751 -0.864321 0.805675
677 1 0.779934 16.538 0.766934 0.38553 -0.291535 0.787698 1.76102 0.552622 2.01564
391 1 5.534 14.9756 2.3819 -1.43892 0.501393 2.47908 0.173582 0.409161 -0.180796
392 1 7.16815 16.5892 3.90394 -0.571747 -1.49354 1.45013 -0.45534 0.167175 1.02761
395 1 7.17714 16.5513 0.820384 1.58684 0.493576 1.24808 -0.975211 1.02966 0.11689
393 1 8.73294 15.0221 2.42686 0.791996 0.158246 0.442222 0.0367216 0.109926 -0.425095
394 1 10.2575 16.7022 0.873522 -1.06447 1.87295 -1.60978 0.266552 -0.403256 -0.300686
397 1 10.3164 16.5991 3.96248 1.13875 1.61931 -1.34642 0.0827528 0.945042 -0.225229
398 1 11.8638 15.0632 2.40215 3.40858 -0.134736 2.08217 0.386048 -0.158819 -0.609007
399 1 13.5674 16.6067 3.86564 0.30772 -1.67485 -0.186337 -1.34334 0.454058 0.500606
663 1 13.4407 16.6116 0.732334 0.846698 -0.328628 0.343667 -0.177611 0.454386 0.484578
400 1 15.0316 15.0069 2.28817 1.07534 0.411167 0.611005 0.571429 0.389469 0.485469
401 1 16.5789 16.6478 3.99573 0.0869428 -1.01992 1.80628 1.15199 0.0146242 -1.45373
668 1 16.5705 16.6177 0.754834 0.907251 1.58171 0.963193 0.78333 0.188874 1.09053
402 1 18.2835 15.0208 2.33906 0.0287539 -1.53725 -0.356519 -0.823768 0.778353 0.39291
403 1 19.878 16.6719 3.8961 -1.02307 -0.0883695 -1.38008 -1.3262 -0.473269 0.414495
674 1 19.8231 16.6982 0.782034 -1.01298 0.599019 -1.4901 -0.559207 -0.772701 0.28993
404 1 21.4565 15.0459 2.33839 -1.49468 0.642297 -1.029 -0.297804 -0.44076 -0.325742
406 1 22.9959 16.6107 3.903 -0.46702 2.14134 1.35087 0.150084 0.744232 0.201065
407 1 24.5586 15.0759 2.34491 1.15824 -0.852246 -0.491355 -0.802998 -0.579709 0.577737
675 1 22.9302 16.6447 0.758434 -1.39294 -1.22192 -1.87736 -0.376741 -0.0647849 0.950015
678 1 2.33704 18.1056 2.34233 1.83289 0.0673708 -1.77266 0.0929764 1.2856 0.0978186
680 1 3.81193 19.7688 4.07859 1.67283 -0.599987 1.38347 1.2871 -0.328802 -1.77739
681 1 0.793971 19.7767 3.93885 0.979104 2.34213 1.68342 -0.408328 0.167303 0.216836
703 1 0.750334 19.8482 0.854167 0.0371592 -0.341376 -1.36145 1.78 -0.518464 1.36727
972 1 3.88525 19.819 0.769734 0.242572 -0.21286 0.501813 -0.447547 -0.432221 1.00471
682 1 5.49209 18.1832 2.4097 2.41216 1.29518 -0.184991 -0.140485 0.142871 -0.438809
684 1 7.08896 19.8376 3.96984 -1.37832 1.05062 -1.93598 -0.0609114 -0.368808 0.102068
685 1 7.02954 19.8211 0.79334 -1.28062 2.32112 1.08692 0.369816 -0.425213 0.188396
686 1 8.6208 18.2999 2.37897 1.37765 0.522094 -0.578741 0.929537 -0.836115 -0.028531
688 1 10.284 19.7586 3.98088 0.185347 1.05632 0.577844 -0.202184 0.950506 -0.904893
983 1 10.293 19.847 0.774134 0.503212 -0.518233 -1.26366 -0.283942 -0.271824 0.533061
689 1 11.8706 18.2615 2.36502 0.0086181 -0.0167787 -1.74187 0.138268 -0.234271 -0.192861
691 1 13.4588 19.8337 3.94943 1.50169 -1.14237 2.57986 0.245727 -0.163591 -0.844353
990 1 13.5039 19.8017 0.669734 0.635946 1.3243 -0.981764 -0.248528 0.435254 1.41626
692 1 14.979 18.264 2.32674 -0.937642 0.285908 -0.0761604 1.16713 -0.280104 0.00952835
694 1 16.639 19.8751 4.00404 0.771336 0.569484 -0.455443 0.329963 -0.911444 -0.727597
994 1 16.7251 19.8212 0.777134 0.952025 -0.0354788 -2.52678 -1.13604 -0.277497 -0.0582968
695 1 18.165 18.2755 2.39005 0.717957 -0.352162 0.770161 0.275765 -1.26609 0.290081
697 1 19.8655 19.7954 3.98521 -0.291336 0.479312 -2.59759 -1.27519 0.215122 -0.327918
993 1 19.7753 19.7523 0.746034 1.58509 -1.9826 -2.35348 0.494821 0.56998 0.277097
698 1 21.3634 18.2615 2.3755 1.53768 0.860367 -1.67206 1.02496 -0.440062 -0.466196
700 1 23.0003 19.841 3.91466 0.411236 1.71096 0.953707 0.248631 -0.412575 -0.0183489
701 1 24.5393 18.1749 2.37297 0.37185 1.2882 -2.01835 -1.02589 0.841284 0.46089
998 1 22.9172 19.8291 0.773934 -2.30708 -0.41577 -0.131458 -0.273357 -0.298631 1.07751
679 1 2.28656 21.3547 2.4217 0.946015 -0.486827 -0.213285 0.446151 0.831131 -0.670752
704 1 2.40025 24.547 2.35781 0.310304 -2.12407 0.352068 0.249376 -1.76191 0.837297
705 1 0.83654 23.0376 3.95414 1.27369 -0.0933982 0.967325 0.569246 -0.925357 -0.0430701
706 1 3.90105 22.9096 0.818457 -0.46455 0.917787 -0.756711 -0.361932 -0.487317 0.876106
707 1 3.96099 22.966 4.02865 0.0165819 -0.0833345 1.95288 -1.2268 0.00437909 -0.896275
1024 1 0.779534 23.0135 0.775234 -0.595239 2.62199 -1.13801 2.44563 -1.8331 2.69749
683 1 5.45633 21.3226 2.39686 -1.16038 0.604026 0.0155231 0.050641 0.716709 0.16867
708 1 5.46625 24.4896 2.401 -1.58381 0.639139 -1.89766 0.21385 -0.323814 0.281159
709 1 7.11806 23.0488 3.96417 1.39222 0.55175 2.91421 -0.600029 -1.14077 -0.137883
710 1 7.08092 22.9629 0.825014 1.50523 1.24752 2.11618 -0.296221 -0.697352 0.610002
687 1 8.63817 21.3926 2.34452 -1.07757 0.0480278 -0.559695 0.269745 0.06723 0.388376
712 1 8.6155 24.5999 2.35035 0.7426 -0.473114 -0.228722 0.596542 -1.06276 0.712045
713 1 10.1429 22.9469 3.91094 0.963374 2.11584 -0.309865 1.89977 0.0397654 -0.122534
714 1 10.238 22.9517 0.820568 1.28791 -0.00536509 -2.57683 0.235316 -0.18426 0.693711
690 1 11.8923 21.3985 2.3141 -1.03833 -0.447733 1.53897 -0.157775 0.00290492 0.476218
715 1 13.4441 23.0253 0.855558 -0.426588 -1.32592 -0.45543 0.427559 -0.998976 0.615229
716 1 11.8541 24.5451 2.4453 -1.0701 3.12398 2.0683 -0.16659 -0.95017 0.405025
717 1 13.4577 22.959 3.93646 -1.30129 -0.720486 0.669088 0.110742 0.497185 -0.489344
693 1 15.1583 21.3657 2.36091 -0.998364 0.148291 -1.29206 -1.56696 0.83294 -0.458721
720 1 15.1139 24.5669 2.43095 1.28017 -1.51523 -0.0273873 -0.488649 -1.31087 0.586995
722 1 16.6888 22.9579 3.92901 0.389017 -1.18839 -0.376791 -0.442471 0.618085 -0.0701091
1015 1 16.6322 22.9586 0.741834 0.730655 -0.647436 -0.00437031 0.0806312 -0.494606 1.36596
696 1 18.2874 21.3695 2.33994 0.359147 0.54624 -1.12458 -0.695066 0.59883 0.522521
723 1 18.2421 24.5431 2.31879 -0.349011 -0.715221 -0.534829 0.0319789 -0.952454 1.0549
724 1 19.7834 22.9236 3.98709 -0.500241 0.576702 0.923044 0.954157 1.06519 -0.957859
728 1 19.8018 22.9594 0.799588 0.262653 -1.98737 0.0641108 0.248428 -0.520348 0.682127
699 1 21.3289 21.3658 2.36337 0.574586 0.406287 -0.127329 1.20755 1.02641 -0.0174131
702 1 24.5486 21.4533 2.3706 -0.165411 0.0885262 0.571713 -0.978321 -0.352644 0.92436
725 1 21.3823 24.6496 2.30742 -0.852091 -0.136233 0.801461 0.369694 -2.23827 1.5123
726 1 22.9342 23.0039 3.94694 0.179929 -0.176747 0.230028 0.455058 0.404585 -0.175691
727 1 22.9678 22.9343 0.856401 0.251177 1.62354 -0.227709 -0.911948 0.00230385 1.13465
729 1 24.5449 24.5768 2.34907 -0.259475 0.385985 -0.509355 -2.5377 -2.33891 1.79895
60 1 2.38129 2.2981 5.5481 -0.147507 -1.55147 0.158888 -1.10295 0.222419 -0.215665
62 1 3.89972 3.91627 7.1115 -0.25046 2.59476 0.302642 0.634628 0.504077 0.306509
63 1 0.808935 3.86714 7.13652 0.656237 0.146932 -0.241323 0.0879016 0.152208 0.379744
770 1 3.92639 0.748934 7.01067 -0.0386997 -1.91048 1.04278 -0.212929 0.106963 1.58091
799 1 0.699534 0.753134 7.13997 0.178286 -0.319791 0.791303 2.58008 2.07875 -0.174092
64 1 5.46992 2.35679 5.53454 -0.0593292 -1.20136 1.28944 0.958481 0.258547 -0.0774031
66 1 7.08259 3.92695 7.09608 1.24084 -1.47658 0.830303 0.762493 0.00884814 0.248211
777 1 7.09241 0.756434 7.16349 2.56255 -0.113188 0.444687 0.363715 0.969474 -0.267628
67 1 8.7141 2.30195 5.47938 0.636251 -1.27792 1.8327 -0.869987 0.784878 1.28595
69 1 10.2814 3.95813 7.03284 -1.52092 -1.59485 -0.0328333 -0.256858 0.196695 1.30104
72 1 10.3087 0.800634 7.08585 1.09287 0.337967 1.08243 -0.330595 0.105745 0.584367
70 1 11.8229 2.36109 5.49406 2.18455 1.57097 0.329895 1.1797 -0.163095 0.852295
73 1 13.5541 3.97103 7.12673 -0.00970846 1.78604 -0.195822 -1.89055 -0.824475 0.458291
76 1 13.4793 0.832478 7.14197 0.261702 1.87883 0.863261 -0.442452 -0.0285644 0.373903
74 1 15.0444 2.34653 5.61571 -1.42468 -1.58825 1.72037 0.226357 0.259759 -0.682621
77 1 16.6881 3.91256 7.14897 -0.679944 0.721008 1.78092 0.281015 0.180051 0.225385
789 1 16.6373 0.729034 7.14596 -0.255303 1.3372 0.113234 0.181958 0.77723 0.314396
78 1 18.2252 2.35763 5.59749 0.0810373 -3.10489 -0.921524 0.66762 -0.151807 0.211792
80 1 19.9522 3.9891 7.14556 0.507365 -1.50168 -1.44323 -1.97012 -1.08629 -0.514528
790 1 19.7689 0.694634 7.11766 -0.759349 1.43479 1.74718 0.66594 1.50541 -0.0265617
81 1 21.4706 2.39764 5.51134 1.55291 -0.251038 -0.384553 -0.334806 -0.605677 0.86699
83 1 23.0015 4.02412 7.14224 -0.196069 0.343873 -0.366561 0.173089 -1.6583 -0.0888882
84 1 24.5713 2.43988 5.58379 0.88351 -2.09525 -0.849994 -0.772628 0.109204 -0.434686
791 1 22.9662 0.759634 7.07419 0.981452 -0.0413093 2.38504 -0.592948 1.46679 0.51466
86 1 0.856 7.07258 7.20465 -0.770544 0.646775 1.112 -0.409738 0.27777 -1.13218
87 1 2.37743 5.51522 5.5804 0.393516 1.93925 0.839678 -0.0568418 0.191287 -0.333274
91 1 4.02574 7.10788 7.13598 1.50272 0.00301275 -1.28392 -1.58262 0.0634472 0.621
95 1 5.51406 5.56682 5.53098 -0.331983 -1.17868 -0.385393 -0.195992 -1.48349 0.358687
96 1 7.05745 7.1069 7.15745 0.0417753 -1.04687 0.0602562 0.711833 0.0424462 -0.272617
99 1 8.69417 5.6215 5.5691 0.824359 -0.0873368 0.460793 0.0148168 -1.42218 -0.438724
101 1 10.2631 7.15857 7.04208 -0.587421 -1.33246 0.443563 -0.0765878 -0.345876 1.69046
104 1 11.8971 5.52893 5.56538 0.772635 1.66041 -0.148202 -0.224918 -0.0534944 -0.346768
106 1 13.3953 7.10154 7.16009 -0.962984 0.0409341 0.111373 1.31619 0.692861 -0.275279
107 1 16.6151 7.10596 7.1752 0.91564 -1.27653 -0.793202 -0.243477 0.232856 -0.381439
110 1 15.0485 5.53749 5.58762 0.798826 0.0699037 1.36545 0.571412 -0.120242 -0.569834
113 1 18.2528 5.54591 5.53536 -0.0775773 -0.379245 0.230754 -0.515147 -0.343396 0.920354
117 1 19.8146 7.06634 7.21151 0.937637 0.27324 1.41196 -0.232467 1.0633 -0.647383
120 1 21.4401 5.59294 5.48235 -1.15811 -0.853734 0.564621 -0.0712459 -0.0877153 0.954057
123 1 22.9737 7.17808 7.24399 -0.539325 -1.1714 0.183603 -0.48323 -0.201344 -1.0245
125 1 24.5468 5.51125 5.57842 1.84676 -0.339067 0.951072 0.242464 0.713977 -0.157792
88 1 2.32521 8.71486 5.51889 -0.116949 1.15723 -0.614824 0.173827 -0.678685 0.0869813
410 1 3.8888 10.3093 7.04905 -1.41455 0.806147 0.87014 0.694894 -0.595822 0.694501
433 1 0.761834 10.2921 7.10201 0.392956 1.04858 -1.17277 0.246389 0.0570509 0.0173495
94 1 5.43813 8.58476 5.46029 0.663984 0.801232 1.24284 0.936385 2.23358 0.526112
413 1 7.03924 10.1687 7.07227 1.48134 -1.27264 1.26581 0.605941 1.22858 0.0823087
98 1 8.67165 8.73411 5.55016 -1.79069 0.802008 -0.00396511 -0.133608 -0.727321 -0.312929
418 1 10.2705 10.2791 7.18582 -0.266904 -0.0411886 0.121717 -0.163434 -0.0639538 -0.149425
103 1 11.8524 8.70598 5.56826 1.21644 0.696225 0.219172 0.464224 0.219045 -0.156385
422 1 13.3791 10.3089 7.1646 -2.02498 1.2495 0.16571 1.21011 -0.597452 0.315297
111 1 15.0233 8.67578 5.52224 1.71834 -1.7228 -0.551199 0.165882 0.603137 1.75285
425 1 16.6013 10.3615 7.16461 -0.507992 -0.701044 -0.254765 0.617499 -1.15822 0.252411
114 1 18.1952 8.63733 5.61592 0.103588 1.14203 -0.177368 0.217242 1.34173 -0.30444
428 1 19.8204 10.4201 7.14759 0.714056 1.10534 -0.13677 -0.388618 -1.25483 -0.346276
119 1 21.3323 8.62399 5.58181 -1.83039 0.790898 -1.6255 0.781702 1.10359 0.250002
124 1 24.5014 8.59256 5.62296 -2.18151 0.246335 0.485013 0.231351 1.12171 -0.600938
431 1 22.8897 10.3286 7.08403 -0.0477035 -0.443418 -0.16925 0.551249 -0.581193 0.968199
408 1 2.41651 11.8786 5.52293 0.390864 -0.301698 1.2563 -1.00904 0.136864 -0.488833
437 1 3.86966 13.5492 7.07567 -0.10384 -1.54988 0.0273232 0.768209 -1.48582 1.00115
463 1 0.739234 13.5396 7.12956 0.133084 2.09177 1.31571 0.36373 -0.819492 -0.290164
411 1 5.59659 11.9036 5.52621 2.18293 -0.187006 0.711568 -1.06911 -1.14946 -0.231597
414 1 7.15916 13.4347 7.1069 0.0628928 -1.4944 0.312586 -0.741371 0.514016 -0.208418
415 1 8.72658 11.8052 5.57528 1.27643 1.81222 0.801385 -0.164967 0.891186 -0.524946
417 1 10.235 13.4406 7.19029 1.30371 -1.35516 1.23763 1.19056 0.121634 -1.21589
419 1 13.4552 13.433 7.0775 -0.701691 1.13804 -0.417261 0.337453 0.431553 0.403062
420 1 11.8885 11.8556 5.58397 0.771804 -1.16341 -0.930668 -0.439488 0.0716722 -0.351852
423 1 15.1076 11.8476 5.6244 0.918769 2.40379 -1.35353 -1.02438 0.370075 -1.30856
456 1 16.6764 13.5 7.07724 1.88945 -1.50283 -0.443959 -0.531884 0.361039 0.93251
426 1 18.2496 11.9601 5.56008 -0.103363 1.02481 -0.582901 0.0600343 -1.32953 -0.840419
459 1 19.8075 13.5352 7.03881 -1.52289 1.29431 0.116797 0.57589 -0.169682 1.22963
429 1 21.4897 11.9618 5.49243 -0.474656 -1.03918 1.13324 -1.51557 -1.47281 0.3147
432 1 22.9912 13.4541 7.02907 -1.1629 0.521875 0.971956 0.245219 0.718806 1.68801
434 1 24.5801 11.7898 5.5263 -0.125929 -0.172739 -0.310412 0.156404 0.483615 0.0411419
436 1 0.797988 16.651 7.16524 0.312834 0.409452 -1.13393 -0.537939 0.13804 -0.283331
438 1 2.36862 15.0658 5.52659 -0.0424554 -1.82825 0.152195 -0.39967 -0.284092 -0.297062
440 1 3.94322 16.6605 7.15069 -0.189871 0.891819 3.69827 0.247118 -0.0918658 -0.118815
441 1 5.53265 15.0114 5.59393 -1.57169 -0.843316 0.836445 1.00704 0.291728 -0.583242
443 1 7.14179 16.5897 7.19361 -1.24677 0.660246 -0.279783 -0.51134 -0.00822524 -1.21606
445 1 8.78547 15.0813 5.53549 -0.600313 0.709483 -0.411357 -1.01094 -0.982861 0.233627
446 1 10.3138 16.6112 7.16337 -0.199193 -0.130862 -1.12499 0.221727 0.0192372 -0.804507
447 1 11.9392 15.0467 5.47499 -1.47638 1.32823 -1.60934 -0.631714 -0.0218883 0.873759
451 1 13.4943 16.6575 7.02353 -1.96142 -0.366731 -0.682949 0.1563 -0.392378 0.99453
449 1 15.0795 14.9872 5.48334 1.14461 0.153935 -0.971675 -0.0550684 0.848193 0.815798
450 1 16.6231 16.6754 7.15917 2.28537 -1.8011 0.237299 -0.463564 -0.305675 -0.469985
453 1 19.7499 16.6559 7.13082 -0.46326 -0.385685 -0.184007 1.40751 -0.152145 -0.342611
455 1 18.2616 15.0853 5.50834 1.46163 -0.571188 -0.107415 -0.520552 0.1663 -0.469357
458 1 21.4108 15.0711 5.46367 0.707319 0.780793 -0.719385 0.202454 0.520102 1.01539
460 1 24.5742 15.0814 5.54457 0.745177 -0.143621 0.606451 -0.113895 -0.210463 -0.0961374
462 1 22.9936 16.6649 7.10375 -0.445653 0.795793 0.554909 -0.304555 -0.632089 0.41253
730 1 2.29432 18.1326 5.56286 -0.267721 0.837914 1.92098 0.931729 0.87411 -0.169705
734 1 3.88802 19.7827 7.13138 -1.39724 0.16843 -0.408548 0.611485 0.0711463 -0.0520362
735 1 0.82961 19.8564 7.13961 0.00370203 -0.308905 -1.15621 -0.515091 -0.650373 0.18605
736 1 5.5684 18.1689 5.52087 1.46849 0.0414628 1.02191 -0.55774 0.158619 0.325733
740 1 7.03474 19.6984 7.15733 1.43183 0.15405 0.277084 1.17101 1.35018 -1.21699
741 1 8.73376 18.2183 5.5422 -0.426934 -2.10757 0.558844 -0.694559 -0.414926 -0.184989
745 1 10.2558 19.7466 7.09473 1.58237 1.03114 0.768018 0.623896 0.620403 0.361148
746 1 11.9284 18.1969 5.49426 0.629067 1.15747 -1.09625 -0.592816 0.0948487 0.152246
750 1 13.4342 19.8315 7.09059 -1.48437 0.160888 1.84946 0.412067 0.00109034 0.360149
751 1 15.0417 18.2574 5.53971 -1.4692 -1.22414 -0.861147 -0.00259795 -0.227236 -0.349695
755 1 16.5945 19.7962 7.05198 1.84388 1.27739 0.530971 0.486013 0.57495 1.30799
756 1 18.2077 18.2122 5.559 -1.24416 -0.445391 1.35757 0.307526 0.351648 -0.639837
760 1 19.8393 19.7482 7.08416 -0.246257 -0.586911 0.780127 -0.189143 0.98044 0.746098
761 1 21.4392 18.2336 5.51041 -0.472123 0.343545 0.166752 -0.010262 -0.450924 0.469796
765 1 23.0334 19.7681 7.19218 0.0959168 -0.885642 1.5927 -0.46599 0.648536 -0.556793
766 1 24.5367 18.2391 5.55583 0.119985 0.281691 0.860859 0.166083 -0.166412 -0.237913
731 1 2.29794 21.3974 5.59 -0.728862 1.5453 0.213171 0.308831 1.04514 -0.376039
771 1 2.34719 24.635 5.54277 -0.563202 -0.0647359 0.837997 0.915981 -1.83022 0.102495
773 1 3.94315 22.9743 7.15297 0.0229484 0.383317 0.89863 -0.202583 0.101186 -0.76354
795 1 0.724734 22.9718 7.20543 0.141974 2.2817 -0.0308104 1.64379 -0.312739 -0.588393
737 1 5.50765 21.3955 5.50105 0.147004 1.61473 -0.987305 0.301218 -0.132196 1.10827
774 1 5.52934 24.5824 5.51593 -1.37794 0.392308 0.350233 -0.145654 -0.350251 0.614243
776 1 7.09776 22.9782 7.20297 1.19266 1.53486 -0.965007 -0.160487 -0.157375 -1.54328
742 1 8.68294 21.416 5.59064 -1.5228 -2.40347 0.513057 -0.608057 -0.821345 -0.792263
778 1 8.708 24.5304 5.53629 -0.248934 0.719605 1.33243 -0.264122 0.418061 0.115722
780 1 10.2574 22.9471 7.07939 0.0765956 1.78482 1.01154 0.59529 -0.0621295 0.885408
747 1 11.8673 21.4004 5.48469 -0.11524 0.429247 -2.33217 -0.506393 -0.0882217 0.363213
781 1 13.459 22.9822 7.09966 -0.143485 1.85429 1.82043 -0.0947552 -0.194334 0.79686
783 1 11.874 24.4839 5.56506 -0.804175 -0.17555 -0.729855 -0.205772 0.359493 -0.465014
752 1 15.0132 21.4791 5.50834 -0.444586 -0.000484511 2.72217 0.781893 -0.727994 0.652639
784 1 15.0659 24.5435 5.63034 -0.0212158 0.326179 -0.806238 0.0817986 0.0216622 -1.08771
788 1 16.7104 22.9959 7.1413 1.32688 -1.25615 1.58913 -1.37997 -0.220898 -0.255338
757 1 18.2345 21.4627 5.59058 -0.555682 0.835621 -0.120938 0.0628342 -1.36116 -0.749305
786 1 18.2326 24.5846 5.52791 -2.06655 -0.611407 2.0128 -0.0420841 -0.0706249 -0.140092
794 1 19.8156 23.0184 7.06505 -0.765714 1.0515 -1.49517 0.543509 -0.756137 1.33474
762 1 21.4606 21.3521 5.55377 -1.71574 -0.234365 0.859161 -0.316586 0.840881 0.307754
767 1 24.5551 21.3573 5.58293 0.261592 -1.42413 1.95709 -0.158769 0.91477 -0.489287
793 1 21.4164 24.5562 5.62652 1.03829 0.930008 1.96701 0.414998 -0.184597 -1.42653
797 1 24.5614 24.5544 5.50829 -1.25316 -0.382478 1.1869 -1.96513 -2.06711 0.262642
798 1 23.0326 22.9911 7.16352 -1.1455 -0.498962 0.385897 0.0777683 -0.163601 -0.622847
61 1 2.40309 2.3286 8.71138 -0.365335 -1.16713 0.265713 -0.524437 -0.125142 0.314157
128 1 3.99977 3.99741 10.262 -2.70913 0.57719 0.460692 -1.11455 -1.06262 0.721302
132 1 4.00252 0.803558 10.3294 1.69485 1.44974 -0.252303 -0.641147 0.422383 -0.711422
150 1 0.746234 3.92333 10.3339 -0.26662 0.522478 2.7515 0.952314 -0.409817 -0.391043
830 1 0.83029 0.778934 10.2926 1.12491 1.06458 0.0388036 1.85086 1.92077 0.0340811
65 1 5.55901 2.40286 8.7056 0.748326 0.663123 -0.732855 -0.374279 -0.887522 -0.316943
130 1 7.12402 3.86224 10.2798 -0.314968 -0.643828 1.36045 0.457221 1.64787 0.432383
131 1 7.12185 0.791065 10.3372 -0.239476 0.570642 0.532669 0.183309 -0.143794 -0.51578
68 1 8.78804 2.41337 8.74978 0.516677 -2.2409 1.17092 -1.12949 -0.381909 -1.23478
134 1 10.2585 4.03761 10.3137 1.58692 -0.112942 0.968725 0.443517 -0.635909 -0.180651
139 1 10.3272 0.80815 10.32 1.72814 0.344124 -1.03052 -0.400245 0.0914498 -0.343659
71 1 11.812 2.42853 8.70696 -1.4484 -1.53103 0.44342 1.06447 0.172388 -0.346879
137 1 13.4028 3.94431 10.3827 1.14426 -0.833254 0.672589 0.789512 0.126238 -1.51097
140 1 13.4366 0.844463 10.2583 -0.83706 2.22192 -0.991729 0.106557 -0.266318 0.313998
75 1 15.0899 2.37465 8.74523 0.0447494 0.600386 -0.251276 -0.507008 -0.0665204 -0.0569324
142 1 16.5973 0.799081 10.3242 1.76895 1.1949 0.610843 0.742772 -0.370606 -0.01208
143 1 16.656 3.80138 10.4048 0.409188 0.688915 -0.215333 -0.432886 1.55128 -0.924859
79 1 18.2969 2.42796 8.75767 -1.56616 -0.906608 0.506815 -0.803316 -1.30658 -0.958147
145 1 19.7771 3.92801 10.2499 0.682123 1.74999 0.841816 1.09155 0.62759 1.33847
844 1 19.7876 0.746434 10.2548 1.09984 -0.602761 -0.674876 0.511119 0.832268 0.510939
82 1 21.4386 2.35196 8.67535 0.162256 2.97139 1.15425 0.0662193 -0.501352 0.187468
85 1 24.6181 2.32549 8.72267 0.440393 -0.559478 -0.158662 -1.35689 1.10622 -0.213569
148 1 22.9561 3.89692 10.2849 1.39688 -1.35716 1.25239 0.213503 0.817739 0.579751
151 1 23.0449 0.85688 10.2969 -0.0649098 0.0991844 0.902292 -1.24144 0.24301 0.273723
89 1 2.34987 5.58864 8.78014 -0.28934 1.00388 -1.30879 0.789791 -1.59572 -0.847895
155 1 0.830124 7.07706 10.3598 -0.495709 -0.0282981 -2.84902 -0.758634 0.75137 -0.402389
156 1 3.9846 7.09439 10.3271 0.421066 -0.307272 0.678087 0.0197967 0.979535 -0.289431
93 1 5.59541 5.54066 8.79251 1.40308 -0.00206318 -1.96166 -0.574597 0.0780123 -1.02232
159 1 7.15247 7.18924 10.3533 1.65962 1.06812 -1.90834 -0.774026 -0.818743 -0.0408365
97 1 8.68613 5.62006 8.74747 -0.436081 -0.33742 2.10282 0.46575 -1.00688 -0.588008